                         Program Version 5.0.1 -  RELEASE  -
|  1> ! B3LYP 6-31G(d) Opt TightSCF
|  2> %pal
|  3>    nprocs 16
|  4> end
|  5>
|  6> * xyz 0 1
|  7> C    3.370287   0.955182   0.934529
|  8> N    3.401358  -0.063798  -0.123059
|  9> C    4.784165  -0.286445  -0.562848
| 10> S    2.690064  -1.562753   0.447288
| 11> O    3.561319  -2.732491   0.078221
| 12> O    2.531793  -1.549275   1.944088
| 13> N    1.133332  -1.801526  -0.294897
| 14> C    0.173127  -0.747736   0.077678
| 15> C    0.148220   0.397119  -0.954013
| 16> C   -0.770016   1.524754  -0.474477
| 17> C   -2.116121   1.019455  -0.011220
| 18> C   -3.168837   1.935743   0.138577
| 19> C   -4.409906   1.516883   0.622445
| 20> C   -4.614039   0.180258   0.971288
| 21> O   -5.859982  -0.223054   1.446369
| 22> C   -3.567577  -0.741350   0.839723
| 23> C   -2.310102  -0.330767   0.368395
| 24> C   -1.227733  -1.367867   0.176032
| 25> H    2.327320   1.126707   1.272487
| 26> H    3.991959   0.652457   1.806207
| 27> H    3.748283   1.922983   0.540717
| 28> H    4.798158  -0.990887  -1.421409
| 29> H    5.407413  -0.697268   0.262408
| 30> H    5.233677   0.666388  -0.917030
| 31> H    1.268976  -1.833201  -1.331941
| 32> H    0.417887  -0.331042   1.080663
| 33> H    1.166313   0.807990  -1.107625
| 34> H   -0.214605   0.018345  -1.935537
| 35> H   -0.282267   2.056807   0.371097
| 36> H   -0.904254   2.251899  -1.304783
| 37> H   -3.026475   2.978437  -0.117980
| 38> H   -5.214630   2.233376   0.728089
| 39> H   -6.041218  -1.185163   1.707894
| 40> H   -3.734524  -1.779063   1.102376
| 41> H   -1.240767  -2.085417   1.025909
| 42> H   -1.450595  -1.935681  -0.753970
| 43> *
| 44>
| 45>                          ****END OF INPUT****
 Total Charge           Charge          ....    0
 Multiplicity           Mult            ....    1
 Number of Electrons    NEL             ....  144
FINAL SINGLE POINT ENERGY     -1200.818962538141
FINAL SINGLE POINT ENERGY     -1200.841642690642
FINAL SINGLE POINT ENERGY     -1200.850191908914
FINAL SINGLE POINT ENERGY     -1200.851454083729
FINAL SINGLE POINT ENERGY     -1200.852050527583
FINAL SINGLE POINT ENERGY     -1200.852365781128
FINAL SINGLE POINT ENERGY     -1200.852480859604
FINAL SINGLE POINT ENERGY     -1200.852526320411
FINAL SINGLE POINT ENERGY     -1200.852555403898
FINAL SINGLE POINT ENERGY     -1200.852638434255
FINAL SINGLE POINT ENERGY     -1200.853060418204
FINAL SINGLE POINT ENERGY     -1200.853060449949
FINAL SINGLE POINT ENERGY     -1200.853060333324
FINAL SINGLE POINT ENERGY     -1200.853060732719
FINAL SINGLE POINT ENERGY     -1200.853062524396
FINAL SINGLE POINT ENERGY     -1200.853062660189
FINAL SINGLE POINT ENERGY     -1200.853062739511
FINAL SINGLE POINT ENERGY     -1200.853062779939
FINAL SINGLE POINT ENERGY     -1200.853062679661
                    ***********************HURRAY********************

CARTESIAN COORDINATES (ANGSTROEM)
---------------------------------
  C      3.828513    0.891389    1.061369
  N      3.493620   -0.146127    0.076996
  C      4.563503   -0.407018   -0.893797
  S      2.715823   -1.540774    0.701312
  O      3.426130   -2.713939    0.194755
  O      2.494687   -1.296074    2.124692
  N      1.202056   -1.630491   -0.002194
  C      0.173853   -0.603824    0.244346
  C      0.175356    0.544893   -0.774504
  C     -0.839679    1.619678   -0.360199
  C     -2.197257    1.048619    0.012025
  C     -3.320082    1.889451    0.073866
  C     -4.573216    1.420313    0.447403
  C     -4.724910    0.067172    0.774300
  O     -5.972321   -0.359225    1.141745
  C     -3.622059   -0.784536    0.716638
  C     -2.358939   -0.308439    0.336376
  C     -1.200674   -1.289188    0.258731
  H      2.972533    1.093800    1.704546
  H      4.684145    0.617276    1.695675
  H      4.077214    1.803123    0.507792
  H      4.243771   -1.155523   -1.619594
  H      5.490450   -0.758972   -0.418733
  H      4.768075    0.529003   -1.424320
  H      1.269964   -1.953930   -0.964533
  H      0.377537   -0.207296    1.245284
  H      1.178718    0.974966   -0.858432
  H     -0.090335    0.141036   -1.763536
  H     -0.431653    2.175925    0.498355
  H     -0.951986    2.357083   -1.165540
  H     -3.204520    2.942246   -0.177221
  H     -5.436744    2.076638    0.492334
  H     -5.933455   -1.307450    1.343281
  H     -3.740365   -1.838043    0.971316
  H     -1.240698   -2.001422    1.090865
  H     -1.297050   -1.890339   -0.659706

 Multiplicity           Mult            ....    1
 Number of Electrons    NEL             ....  144
 Basis Dimension        Dim             ....  292

ORBITAL ENERGIES
----------------

  NO   OCC          E(Eh)            E(eV)
   0   2.0000     -89.109604     -2424.7956
   1   2.0000     -19.169002      -521.6151
   2   2.0000     -19.135084      -520.6921
   3   2.0000     -19.134110      -520.6656
   4   2.0000     -14.359516      -390.7423
   5   2.0000     -14.354485      -390.6054
   6   2.0000     -10.240545      -278.6594
   7   2.0000     -10.226370      -278.2737
   8   2.0000     -10.212810      -277.9047
   9   2.0000     -10.211636      -277.8727
  10   2.0000     -10.191241      -277.3178
  11   2.0000     -10.185033      -277.1488
  12   2.0000     -10.184030      -277.1215
  13   2.0000     -10.181294      -277.0471
  14   2.0000     -10.181194      -277.0444
  15   2.0000     -10.179607      -277.0012
  16   2.0000     -10.177625      -276.9473
  17   2.0000     -10.174017      -276.8491
  18   2.0000      -8.142257      -221.5621
  19   2.0000      -6.106883      -166.1767
  20   2.0000      -6.106501      -166.1663
  21   2.0000      -6.105191      -166.1307
  22   2.0000      -1.115093       -30.3432
  23   2.0000      -1.054686       -28.6995
  24   2.0000      -1.001407       -27.2497
  25   2.0000      -0.929027       -25.2801
  26   2.0000      -0.921853       -25.0849
  27   2.0000      -0.857439       -23.3321
  28   2.0000      -0.803698       -21.8697
  29   2.0000      -0.768076       -20.9004
  30   2.0000      -0.735578       -20.0161
  31   2.0000      -0.721563       -19.6347
  32   2.0000      -0.716390       -19.4940
  33   2.0000      -0.690724       -18.7956
  34   2.0000      -0.642978       -17.4963
  35   2.0000      -0.617220       -16.7954
  36   2.0000      -0.608895       -16.5689
  37   2.0000      -0.595692       -16.2096
  38   2.0000      -0.562398       -15.3036
  39   2.0000      -0.540237       -14.7006
  40   2.0000      -0.531773       -14.4703
  41   2.0000      -0.504996       -13.7416
  42   2.0000      -0.498436       -13.5631
  43   2.0000      -0.481722       -13.1083
  44   2.0000      -0.470519       -12.8035
  45   2.0000      -0.461061       -12.5461
  46   2.0000      -0.452574       -12.3152
  47   2.0000      -0.442974       -12.0539
  48   2.0000      -0.438489       -11.9319
  49   2.0000      -0.427885       -11.6434
  50   2.0000      -0.424727       -11.5574
  51   2.0000      -0.415277       -11.3002
  52   2.0000      -0.407243       -11.0817
  53   2.0000      -0.407090       -11.0775
  54   2.0000      -0.403719       -10.9858
  55   2.0000      -0.394724       -10.7410
  56   2.0000      -0.385648       -10.4940
  57   2.0000      -0.383725       -10.4417
  58   2.0000      -0.377141       -10.2625
  59   2.0000      -0.364791        -9.9265
  60   2.0000      -0.348715        -9.4890
  61   2.0000      -0.339194        -9.2300
  62   2.0000      -0.332795        -9.0558
  63   2.0000      -0.329290        -8.9604
  64   2.0000      -0.314784        -8.5657
  65   2.0000      -0.313484        -8.5303
  66   2.0000      -0.308743        -8.4013
  67   2.0000      -0.297947        -8.1076
  68   2.0000      -0.277680        -7.5561
  69   2.0000      -0.241802        -6.5798
  70   2.0000      -0.238002        -6.4764
  71   2.0000      -0.211690        -5.7604
  72   0.0000      -0.001560        -0.0424
  73   0.0000       0.015696         0.4271
  74   0.0000       0.054606         1.4859
  75   0.0000       0.070548         1.9197
  76   0.0000       0.071719         1.9516

MULLIKEN ATOMIC CHARGES
-----------------------
   0 C :   -0.301927
   1 N :   -0.532219
   2 C :   -0.299972
   3 S :    1.313982
   4 O :   -0.533409
   5 O :   -0.542467
   6 N :   -0.663447
   7 C :    0.008918
   8 C :   -0.279246
   9 C :   -0.345246
  10 C :    0.112284
  11 C :   -0.187988
  12 C :   -0.160695
  13 C :    0.363112
  14 O :   -0.640675
  15 C :   -0.272025
  16 C :    0.119559
  17 C :   -0.339124
  18 H :    0.183845
  19 H :    0.159862
  20 H :    0.154378
  21 H :    0.177356
  22 H :    0.161982
  23 H :    0.155370
  24 H :    0.340168
  25 H :    0.172822
  26 H :    0.157200
  27 H :    0.128419
  28 H :    0.150528
  29 H :    0.146554
  30 H :    0.121290
  31 H :    0.136373
  32 H :    0.410794
  33 H :    0.111402
  34 H :    0.167573
  35 H :    0.144670
Sum of atomic charges:   -0.0000000

LOEWDIN ATOMIC CHARGES
----------------------
   0 C :   -0.278093
   1 N :   -0.338912
   2 C :   -0.277591
   3 S :    1.287133
   4 O :   -0.557956
   5 O :   -0.556263
   6 N :   -0.428073
   7 C :   -0.072433
   8 C :   -0.241383
   9 C :   -0.225583
  10 C :   -0.049065
  11 C :   -0.118837
  12 C :   -0.155595
  13 C :    0.069647
  14 O :   -0.319639
  15 C :   -0.186222
  16 C :   -0.016068
  17 C :   -0.221808
  18 H :    0.144179
  19 H :    0.122098
  20 H :    0.128663
  21 H :    0.141454
  22 H :    0.123317
  23 H :    0.128848
  24 H :    0.259371
  25 H :    0.142173
  26 H :    0.131935
  27 H :    0.117300
  28 H :    0.128610
  29 H :    0.130148
  30 H :    0.129291
  31 H :    0.139935
  32 H :    0.325138
  33 H :    0.124801
  34 H :    0.140573
  35 H :    0.128907

  Mayer bond orders larger than 0.100000
B(  0-C ,  1-N ) :   0.9498 B(  0-C , 18-H ) :   0.9380 B(  0-C , 19-H ) :   0.9351
B(  0-C , 20-H ) :   0.9367 B(  1-N ,  2-C ) :   0.9513 B(  1-N ,  3-S ) :   0.8435
B(  2-C , 21-H ) :   0.9394 B(  2-C , 22-H ) :   0.9343 B(  2-C , 23-H ) :   0.9361
B(  3-S ,  4-O ) :   1.6804 B(  3-S ,  5-O ) :   1.6635 B(  3-S ,  6-N ) :   0.9271
B(  6-N ,  7-C ) :   0.9011 B(  6-N , 24-H ) :   0.8170 B(  7-C ,  8-C ) :   0.9925
B(  7-C , 17-C ) :   0.9949 B(  7-C , 25-H ) :   0.9130 B(  8-C ,  9-C ) :   1.0013
B(  8-C , 26-H ) :   0.9260 B(  8-C , 27-H ) :   0.9357 B(  9-C , 10-C ) :   0.9800
B(  9-C , 28-H ) :   0.9259 B(  9-C , 29-H ) :   0.9331 B( 10-C , 11-C ) :   1.3839
B( 10-C , 16-C ) :   1.4670 B( 11-C , 12-C ) :   1.4640 B( 11-C , 30-H ) :   0.9264
B( 12-C , 13-C ) :   1.3832 B( 12-C , 31-H ) :   0.9206 B( 13-C , 14-O ) :   0.9513
B( 13-C , 15-C ) :   1.3812 B( 14-O , 32-H ) :   0.7788 B( 15-C , 16-C ) :   1.3891
B( 15-C , 33-H ) :   0.9167 B( 16-C , 17-C ) :   0.9627 B( 17-C , 34-H ) :   0.9266
B( 17-C , 35-H ) :   0.9223

FINAL SINGLE POINT ENERGY     -1200.853062711611

DIPOLE MOMENT
-------------
                                X             Y             Z
Electronic contribution:     -7.01142      -8.17708       4.83815
Nuclear contribution   :      6.92225       9.06733      -5.89484
                        -----------------------------------------
Total Dipole Moment    :     -0.08917       0.89025      -1.05669
                        -----------------------------------------
Magnitude (a.u.)       :      1.38459
Magnitude (Debye)      :      3.51934

Rotational constants in cm-1:     0.033828     0.005447     0.005033
Rotational constants in MHz :  1014.152280   163.300193   150.882775

                             ****ORCA TERMINATED NORMALLY****
TOTAL RUN TIME: 0 days 0 hours 15 minutes 12 seconds 15 msec
