                         Program Version 5.0.1 -  RELEASE  -
|  1> ! B3LYP 6-31G(d) Opt TightSCF
|  2> %pal
|  3>    nprocs 16
|  4> end
|  5>
|  6> * xyz 0 1
|  7> C   -4.943849   1.228782   1.340222
|  8> N   -4.421667   0.563170   0.136680
|  9> C   -3.282938   1.331920  -0.419841
| 10> C   -2.452047   0.486390  -1.392224
| 11> C   -1.832837  -0.753502  -0.690081
| 12> C   -0.341627  -0.543064  -0.340607
| 13> C    0.571797  -0.659888  -1.569128
| 14> N    1.964358  -0.447837  -1.184055
| 15> C    2.824681  -1.403628  -0.558224
| 16> O    2.588708  -2.639563  -0.501185
| 17> C    3.981839  -0.731648   0.021972
| 18> C    5.076566  -1.241086   0.718075
| 19> C    6.044738  -0.332201   1.181582
| 20> C    5.897458   1.052371   0.946467
| 21> C    4.780564   1.541721   0.245508
| 22> C    3.838057   0.620413  -0.207664
| 23> C    2.588830   0.814380  -0.934911
| 24> O    2.102647   1.925281  -1.275565
| 25> C   -2.624853  -1.141346   0.580793
| 26> C   -4.124059  -0.869994   0.396838
| 27> H   -5.167465   2.296300   1.125039
| 28> H   -4.211861   1.170837   2.176206
| 29> H   -5.896113   0.750935   1.655591
| 30> H   -3.677884   2.215771  -0.966058
| 31> H   -2.612910   1.705094   0.388947
| 32> H   -1.674828   1.131709  -1.852406
| 33> H   -3.117857   0.145887  -2.215721
| 34> H   -1.906174  -1.613118  -1.394514
| 35> H   -0.021864  -1.316921   0.392324
| 36> H   -0.203792   0.450637   0.139889
| 37> H    0.466935  -1.669857  -2.021234
| 38> H    0.292848   0.086449  -2.341314
| 39> H    5.178915  -2.303272   0.898233
| 40> H    6.907128  -0.696582   1.724440
| 41> H    6.647699   1.742259   1.310304
| 42> H    4.657174   2.601660   0.065291
| 43> H   -2.266634  -0.560492   1.459858
| 44> H   -2.467939  -2.219525   0.802939
| 45> H   -4.672150  -1.252960   1.287384
| 46> H   -4.489595  -1.465484  -0.467515
| 47> *
| 48>
| 49>                          ****END OF INPUT****
 Total Charge           Charge          ....    0
 Multiplicity           Mult            ....    1
 Number of Electrons    NEL             ....  146
FINAL SINGLE POINT ENERGY      -881.152603383116
FINAL SINGLE POINT ENERGY      -881.166791876486
FINAL SINGLE POINT ENERGY      -881.169530974189
FINAL SINGLE POINT ENERGY      -881.169962278710
FINAL SINGLE POINT ENERGY      -881.170208294109
FINAL SINGLE POINT ENERGY      -881.170301047614
FINAL SINGLE POINT ENERGY      -881.170345525754
FINAL SINGLE POINT ENERGY      -881.170349503764
                    ***********************HURRAY********************

CARTESIAN COORDINATES (ANGSTROEM)
---------------------------------
  C     -5.204548    1.216158    1.113966
  N     -4.510154    0.561376    0.018374
  C     -3.319280    1.314125   -0.385794
  C     -2.435344    0.483769   -1.319892
  C     -1.859658   -0.774615   -0.604051
  C     -0.411056   -0.584109   -0.116831
  C      0.618467   -0.584031   -1.256547
  N      1.981644   -0.367796   -0.784345
  C      2.835776   -1.398438   -0.359274
  O      2.558232   -2.582224   -0.348660
  C      4.104850   -0.725568    0.053205
  C      5.284488   -1.263271    0.547918
  C      6.322151   -0.371164    0.852884
  C      6.168749    1.008703    0.662833
  C      4.972667    1.541648    0.161825
  C      3.951693    0.650296   -0.135967
  C      2.580094    0.898169   -0.674944
  O      2.054338    1.952852   -0.974793
  C     -2.780614   -1.173762    0.574300
  C     -4.249012   -0.874690    0.244111
  H     -5.453386    2.244562    0.824172
  H     -4.615516    1.270336    2.053137
  H     -6.143881    0.695280    1.330394
  H     -3.644259    2.234535   -0.889531
  H     -2.718412    1.638825    0.489480
  H     -1.629456    1.118632   -1.706816
  H     -3.038589    0.181108   -2.184598
  H     -1.864336   -1.605894   -1.324647
  H     -0.149332   -1.392815    0.578094
  H     -0.329644    0.358587    0.441993
  H      0.607694   -1.547919   -1.774857
  H      0.406600    0.205857   -1.982424
  H      5.392620   -2.334306    0.690610
  H      7.261249   -0.754022    1.243114
  H      6.991300    1.674865    0.908606
  H      4.843309    2.609156    0.010660
  H     -2.493187   -0.616349    1.477108
  H     -2.650404   -2.237368    0.811278
  H     -4.900200   -1.226478    1.052300
  H     -4.535653   -1.444022   -0.654055

 Multiplicity           Mult            ....    1
 Number of Electrons    NEL             ....  146
 Basis Dimension        Dim             ....  320

ORBITAL ENERGIES
----------------

  NO   OCC          E(Eh)            E(eV)
   0   2.0000     -19.139540      -520.8134
   1   2.0000     -19.139402      -520.8096
   2   2.0000     -14.375319      -391.1723
   3   2.0000     -14.303187      -389.2095
   4   2.0000     -10.302985      -280.3585
   5   2.0000     -10.302883      -280.3557
   6   2.0000     -10.216257      -277.9985
   7   2.0000     -10.209300      -277.8092
   8   2.0000     -10.209248      -277.8078
   9   2.0000     -10.208698      -277.7928
  10   2.0000     -10.208464      -277.7864
  11   2.0000     -10.208275      -277.7813
  12   2.0000     -10.208090      -277.7762
  13   2.0000     -10.190422      -277.2955
  14   2.0000     -10.189175      -277.2615
  15   2.0000     -10.184042      -277.1219
  16   2.0000     -10.180479      -277.0249
  17   2.0000     -10.174794      -276.8702
  18   2.0000     -10.168337      -276.6945
  19   2.0000     -10.167694      -276.6770
  20   2.0000      -1.064372       -28.9630
  21   2.0000      -1.045282       -28.4436
  22   2.0000      -0.955611       -26.0035
  23   2.0000      -0.908083       -24.7102
  24   2.0000      -0.878405       -23.9026
  25   2.0000      -0.814998       -22.1772
  26   2.0000      -0.790869       -21.5206
  27   2.0000      -0.771187       -20.9851
  28   2.0000      -0.741702       -20.1827
  29   2.0000      -0.738710       -20.1013
  30   2.0000      -0.690105       -18.7787
  31   2.0000      -0.666797       -18.1445
  32   2.0000      -0.651510       -17.7285
  33   2.0000      -0.627777       -17.0827
  34   2.0000      -0.615797       -16.7567
  35   2.0000      -0.609327       -16.5806
  36   2.0000      -0.584409       -15.9026
  37   2.0000      -0.562629       -15.3099
  38   2.0000      -0.523903       -14.2561
  39   2.0000      -0.517738       -14.0884
  40   2.0000      -0.497399       -13.5349
  41   2.0000      -0.488657       -13.2970
  42   2.0000      -0.479909       -13.0590
  43   2.0000      -0.474918       -12.9232
  44   2.0000      -0.467154       -12.7119
  45   2.0000      -0.457698       -12.4546
  46   2.0000      -0.449387       -12.2284
  47   2.0000      -0.446692       -12.1551
  48   2.0000      -0.435856       -11.8602
  49   2.0000      -0.430045       -11.7021
  50   2.0000      -0.428733       -11.6664
  51   2.0000      -0.409025       -11.1301
  52   2.0000      -0.401074       -10.9138
  53   2.0000      -0.398790       -10.8516
  54   2.0000      -0.391883       -10.6637
  55   2.0000      -0.386851       -10.5267
  56   2.0000      -0.384052       -10.4506
  57   2.0000      -0.375341       -10.2135
  58   2.0000      -0.372427       -10.1343
  59   2.0000      -0.371036       -10.0964
  60   2.0000      -0.361461        -9.8359
  61   2.0000      -0.356366        -9.6972
  62   2.0000      -0.351674        -9.5695
  63   2.0000      -0.341589        -9.2951
  64   2.0000      -0.315748        -8.5919
  65   2.0000      -0.306311        -8.3351
  66   2.0000      -0.302744        -8.2381
  67   2.0000      -0.283583        -7.7167
  68   2.0000      -0.278684        -7.5834
  69   2.0000      -0.273078        -7.4308
  70   2.0000      -0.262018        -7.1299
  71   2.0000      -0.258554        -7.0356
  72   2.0000      -0.191494        -5.2108
  73   0.0000      -0.076451        -2.0803
  74   0.0000      -0.035530        -0.9668
  75   0.0000       0.033264         0.9051
  76   0.0000       0.077139         2.0991
  77   0.0000       0.082232         2.2376

MULLIKEN ATOMIC CHARGES
-----------------------
   0 C :   -0.298845
   1 N :   -0.355215
   2 C :   -0.120307
   3 C :   -0.301353
   4 C :   -0.064847
   5 C :   -0.278584
   6 C :   -0.152690
   7 N :   -0.488463
   8 C :    0.499235
   9 O :   -0.423228
  10 C :    0.038682
  11 C :   -0.175257
  12 C :   -0.126843
  13 C :   -0.126768
  14 C :   -0.175264
  15 C :    0.038065
  16 C :    0.499120
  17 O :   -0.423357
  18 C :   -0.282540
  19 C :   -0.137891
  20 H :    0.145204
  21 H :    0.112751
  22 H :    0.145488
  23 H :    0.136521
  24 H :    0.106919
  25 H :    0.146007
  26 H :    0.146176
  27 H :    0.122000
  28 H :    0.150349
  29 H :    0.147613
  30 H :    0.170216
  31 H :    0.173652
  32 H :    0.163008
  33 H :    0.145384
  34 H :    0.145359
  35 H :    0.162985
  36 H :    0.136659
  37 H :    0.134790
  38 H :    0.131735
  39 H :    0.133536
Sum of atomic charges:   -0.0000000

LOEWDIN ATOMIC CHARGES
----------------------
   0 C :   -0.277848
   1 N :   -0.188350
   2 C :   -0.157240
   3 C :   -0.238185
   4 C :   -0.122315
   5 C :   -0.233782
   6 C :   -0.155535
   7 N :   -0.058303
   8 C :    0.128865
   9 O :   -0.214699
  10 C :   -0.041819
  11 C :   -0.100914
  12 C :   -0.111693
  13 C :   -0.111704
  14 C :   -0.100898
  15 C :   -0.041935
  16 C :    0.128780
  17 O :   -0.215162
  18 C :   -0.239962
  19 C :   -0.158605
  20 H :    0.122346
  21 H :    0.092223
  22 H :    0.121257
  23 H :    0.119457
  24 H :    0.091487
  25 H :    0.127851
  26 H :    0.126689
  27 H :    0.117082
  28 H :    0.128533
  29 H :    0.125767
  30 H :    0.140840
  31 H :    0.140531
  32 H :    0.149982
  33 H :    0.139507
  34 H :    0.139506
  35 H :    0.149977
  36 H :    0.119683
  37 H :    0.124729
  38 H :    0.121451
  39 H :    0.112405

  Mayer bond orders larger than 0.100000
B(  0-C ,  1-N ) :   1.0000 B(  0-C , 20-H ) :   0.9477 B(  0-C , 21-H ) :   0.9230
B(  0-C , 22-H ) :   0.9485 B(  1-N ,  2-C ) :   0.9867 B(  1-N , 19-C ) :   0.9824
B(  2-C ,  3-C ) :   1.0175 B(  2-C , 23-H ) :   0.9344 B(  2-C , 24-H ) :   0.9129
B(  3-C ,  4-C ) :   0.9867 B(  3-C , 25-H ) :   0.9343 B(  3-C , 26-H ) :   0.9351
B(  4-C ,  5-C ) :   0.9948 B(  4-C , 18-C ) :   0.9988 B(  4-C , 27-H ) :   0.9335
B(  5-C ,  6-C ) :   0.9970 B(  5-C , 28-H ) :   0.9330 B(  5-C , 29-H ) :   0.9315
B(  6-C ,  7-N ) :   0.9081 B(  6-C , 30-H ) :   0.9228 B(  6-C , 31-H ) :   0.9177
B(  7-N ,  8-C ) :   0.9911 B(  7-N , 16-C ) :   0.9917 B(  8-C ,  9-O ) :   1.9213
B(  8-C , 10-C ) :   0.9424 B( 10-C , 11-C ) :   1.4374 B( 10-C , 15-C ) :   1.3699
B( 11-C , 12-C ) :   1.3976 B( 11-C , 32-H ) :   0.9162 B( 12-C , 13-C ) :   1.4464
B( 12-C , 33-H ) :   0.9293 B( 13-C , 14-C ) :   1.3977 B( 13-C , 34-H ) :   0.9293
B( 14-C , 15-C ) :   1.4373 B( 14-C , 35-H ) :   0.9162 B( 15-C , 16-C ) :   0.9411
B( 16-C , 17-O ) :   1.9225 B( 18-C , 19-C ) :   0.9957 B( 18-C , 36-H ) :   0.9344
B( 18-C , 37-H ) :   0.9351 B( 19-C , 38-H ) :   0.9384 B( 19-C , 39-H ) :   0.9358

FINAL SINGLE POINT ENERGY      -881.170350333346

DIPOLE MOMENT
-------------
                                X             Y             Z
Electronic contribution:     33.48072      -1.89075      -3.39064
Nuclear contribution   :    -32.55553       1.95947       3.92236
                        -----------------------------------------
Total Dipole Moment    :      0.92519       0.06871       0.53172
                        -----------------------------------------
Magnitude (a.u.)       :      1.06931
Magnitude (Debye)      :      2.71797

Rotational constants in cm-1:     0.030618     0.004384     0.004101
Rotational constants in MHz :   917.904760   131.416676   122.954034

                             ****ORCA TERMINATED NORMALLY****
TOTAL RUN TIME: 0 days 0 hours 5 minutes 54 seconds 821 msec
