                         Program Version 5.0.1 -  RELEASE  -
|  1> ! B3LYP 6-31G(d) Opt TightSCF
|  2> %pal
|  3>    nprocs 16
|  4> end
|  5>
|  6> * xyz 0 1
|  7> C    6.667919  -0.885930  -0.108318
|  8> N    5.360490  -1.184679   0.462260
|  9> C    4.181330  -0.479797   0.063833
| 10> O    4.247726   0.408089  -0.830162
| 11> O    2.952541  -0.829631   0.638063
| 12> C    1.776435  -0.068638   0.564756
| 13> C    1.795420   1.346364   0.467365
| 14> C    0.594308   2.070921   0.406359
| 15> C   -0.606500   1.366932   0.455950
| 16> C   -0.638153   0.005234   0.570571
| 17> C    0.542153  -0.740174   0.632207
| 18> C   -2.058527  -0.478543   0.621988
| 19> C   -2.360514  -1.169821   1.963337
| 20> C   -2.433915  -1.349327  -0.575650
| 21> C   -3.727792  -0.741286  -1.087938
| 22> N   -3.690704   0.699472  -0.795400
| 23> C   -3.155317   1.442396  -1.953746
| 24> C   -2.883891   0.828169   0.443578
| 25> N   -1.904003   1.920505   0.395982
| 26> H    6.648726  -1.059003  -1.204942
| 27> H    6.935367   0.172099   0.096602
| 28> H    7.437161  -1.545405   0.345968
| 29> H    5.281232  -1.932452   1.187476
| 30> H    2.729398   1.890801   0.467317
| 31> H    0.601895   3.150392   0.329210
| 32> H    0.505765  -1.818289   0.722101
| 33> H   -3.434426  -1.449489   2.020902
| 34> H   -1.749689  -2.091728   2.069332
| 35> H   -2.125840  -0.491205   2.811763
| 36> H   -1.665114  -1.287456  -1.378334
| 37> H   -2.575161  -2.419337  -0.306944
| 38> H   -4.584295  -1.190760  -0.538831
| 39> H   -3.873746  -0.965259  -2.169034
| 40> H   -3.198812   2.534592  -1.760137
| 41> H   -2.108028   1.142552  -2.180292
| 42> H   -3.785032   1.259241  -2.850919
| 43> H   -3.571699   1.000090   1.300735
| 44> H   -2.126708   2.940358   0.362661
| 45> *
| 46>
| 47>                          ****END OF INPUT****
 Total Charge           Charge          ....    0
 Multiplicity           Mult            ....    1
 Number of Electrons    NEL             ....  140
FINAL SINGLE POINT ENERGY      -859.072379492968
FINAL SINGLE POINT ENERGY      -859.097703211265
FINAL SINGLE POINT ENERGY      -859.101706866728
FINAL SINGLE POINT ENERGY      -859.102513468325
FINAL SINGLE POINT ENERGY      -859.102961354216
FINAL SINGLE POINT ENERGY      -859.103472121937
FINAL SINGLE POINT ENERGY      -859.103722813094
FINAL SINGLE POINT ENERGY      -859.103826281402
FINAL SINGLE POINT ENERGY      -859.103887351892
FINAL SINGLE POINT ENERGY      -859.103944092898
FINAL SINGLE POINT ENERGY      -859.105434854165
FINAL SINGLE POINT ENERGY      -859.105498112677
FINAL SINGLE POINT ENERGY      -859.105573326488
FINAL SINGLE POINT ENERGY      -859.105653316351
FINAL SINGLE POINT ENERGY      -859.105686812499
FINAL SINGLE POINT ENERGY      -859.105702053640
FINAL SINGLE POINT ENERGY      -859.105711457819
FINAL SINGLE POINT ENERGY      -859.105713540375
FINAL SINGLE POINT ENERGY      -859.105715196701
                    ***********************HURRAY********************

CARTESIAN COORDINATES (ANGSTROEM)
---------------------------------
  C      6.272522   -1.049706   -0.504987
  N      5.046148   -1.068693    0.267642
  C      3.990751   -0.257790   -0.022709
  O      3.956461    0.589973   -0.891618
  O      2.965031   -0.551948    0.848537
  C      1.760612    0.152576    0.754940
  C      1.710767    1.546131    0.779921
  C      0.475647    2.203242    0.760728
  C     -0.691409    1.439370    0.724521
  C     -0.637051    0.034965    0.701960
  C      0.590341   -0.613932    0.718185
  C     -2.050794   -0.527430    0.684618
  C     -2.419209   -1.159287    2.038749
  C     -2.394568   -1.453723   -0.517870
  C     -3.582113   -0.729766   -1.202261
  N     -3.355859    0.711127   -1.018483
  C     -2.445363    1.267214   -2.022747
  C     -2.900222    0.778373    0.392991
  N     -2.021875    1.875186    0.750288
  H      6.403421   -1.974534   -1.081869
  H      6.212987   -0.209104   -1.198100
  H      7.144127   -0.914273    0.146337
  H      4.912309   -1.759604    0.991311
  H      2.631578    2.116636    0.796466
  H      0.436541    3.289371    0.772094
  H      0.666724   -1.697920    0.698454
  H     -3.460001   -1.508605    2.035271
  H     -1.774859   -2.018210    2.259599
  H     -2.305062   -0.434653    2.853149
  H     -1.543350   -1.533020   -1.202184
  H     -2.655755   -2.469205   -0.199433
  H     -4.521578   -1.003346   -0.700970
  H     -3.694641   -0.970496   -2.263830
  H     -2.293309    2.335073   -1.840457
  H     -1.451736    0.791581   -2.075765
  H     -2.923150    1.172211   -3.003801
  H     -3.805841    0.799042    1.013638
  H     -2.248223    2.803170    0.417353

 Multiplicity           Mult            ....    1
 Number of Electrons    NEL             ....  140
 Basis Dimension        Dim             ....  304

ORBITAL ENERGIES
----------------

  NO   OCC          E(Eh)            E(eV)
   0   2.0000     -19.176674      -521.8238
   1   2.0000     -19.106085      -519.9030
   2   2.0000     -14.350141      -390.4872
   3   2.0000     -14.331193      -389.9716
   4   2.0000     -14.309266      -389.3749
   5   2.0000     -10.321122      -280.8520
   6   2.0000     -10.228455      -278.3304
   7   2.0000     -10.225719      -278.2560
   8   2.0000     -10.208064      -277.7755
   9   2.0000     -10.207061      -277.7482
  10   2.0000     -10.194882      -277.4168
  11   2.0000     -10.190567      -277.2994
  12   2.0000     -10.186529      -277.1895
  13   2.0000     -10.174655      -276.8664
  14   2.0000     -10.172367      -276.8042
  15   2.0000     -10.172130      -276.7977
  16   2.0000     -10.171582      -276.7828
  17   2.0000     -10.169219      -276.7185
  18   2.0000     -10.165133      -276.6073
  19   2.0000      -1.092287       -29.7226
  20   2.0000      -1.003594       -27.3092
  21   2.0000      -0.957317       -26.0499
  22   2.0000      -0.920463       -25.0471
  23   2.0000      -0.896402       -24.3923
  24   2.0000      -0.831450       -22.6249
  25   2.0000      -0.795838       -21.6559
  26   2.0000      -0.741595       -20.1798
  27   2.0000      -0.731749       -19.9119
  28   2.0000      -0.713196       -19.4070
  29   2.0000      -0.700175       -19.0527
  30   2.0000      -0.681405       -18.5420
  31   2.0000      -0.654793       -17.8178
  32   2.0000      -0.620508       -16.8849
  33   2.0000      -0.610079       -16.6011
  34   2.0000      -0.574273       -15.6268
  35   2.0000      -0.572160       -15.5693
  36   2.0000      -0.556002       -15.1296
  37   2.0000      -0.525136       -14.2897
  38   2.0000      -0.516924       -14.0662
  39   2.0000      -0.486777       -13.2459
  40   2.0000      -0.474684       -12.9168
  41   2.0000      -0.468419       -12.7463
  42   2.0000      -0.461554       -12.5595
  43   2.0000      -0.454643       -12.3715
  44   2.0000      -0.451154       -12.2765
  45   2.0000      -0.433817       -11.8048
  46   2.0000      -0.426479       -11.6051
  47   2.0000      -0.424252       -11.5445
  48   2.0000      -0.418882       -11.3984
  49   2.0000      -0.414123       -11.2689
  50   2.0000      -0.398890       -10.8543
  51   2.0000      -0.396640       -10.7931
  52   2.0000      -0.394943       -10.7470
  53   2.0000      -0.388592       -10.5741
  54   2.0000      -0.384596       -10.4654
  55   2.0000      -0.369401       -10.0519
  56   2.0000      -0.364633        -9.9222
  57   2.0000      -0.362985        -9.8773
  58   2.0000      -0.353541        -9.6203
  59   2.0000      -0.344759        -9.3814
  60   2.0000      -0.326771        -8.8919
  61   2.0000      -0.321576        -8.7505
  62   2.0000      -0.315455        -8.5840
  63   2.0000      -0.299525        -8.1505
  64   2.0000      -0.275330        -7.4921
  65   2.0000      -0.265877        -7.2349
  66   2.0000      -0.249303        -6.7839
  67   2.0000      -0.235171        -6.3993
  68   2.0000      -0.206598        -5.6218
  69   2.0000      -0.183944        -5.0054
  70   0.0000       0.006794         0.1849
  71   0.0000       0.025909         0.7050
  72   0.0000       0.067863         1.8467
  73   0.0000       0.084500         2.2994
  74   0.0000       0.095045         2.5863

MULLIKEN ATOMIC CHARGES
-----------------------
   0 C :   -0.305242
   1 N :   -0.584099
   2 C :    0.707154
   3 O :   -0.463797
   4 O :   -0.540230
   5 C :    0.344324
   6 C :   -0.153722
   7 C :   -0.207102
   8 C :    0.303429
   9 C :    0.089935
  10 C :   -0.249719
  11 C :    0.025677
  12 C :   -0.456423
  13 C :   -0.301689
  14 C :   -0.155579
  15 N :   -0.362963
  16 C :   -0.313655
  17 C :    0.135027
  18 N :   -0.645050
  19 H :    0.156232
  20 H :    0.200422
  21 H :    0.156259
  22 H :    0.335509
  23 H :    0.145980
  24 H :    0.122985
  25 H :    0.126510
  26 H :    0.138609
  27 H :    0.146911
  28 H :    0.157818
  29 H :    0.149655
  30 H :    0.135580
  31 H :    0.140040
  32 H :    0.141185
  33 H :    0.138041
  34 H :    0.142105
  35 H :    0.149876
  36 H :    0.136080
  37 H :    0.313929
Sum of atomic charges:   -0.0000000

LOEWDIN ATOMIC CHARGES
----------------------
   0 C :   -0.279183
   1 N :   -0.225096
   2 C :    0.143853
   3 O :   -0.269127
   4 O :   -0.147099
   5 C :    0.056978
   6 C :   -0.128738
   7 C :   -0.166888
   8 C :    0.026812
   9 C :   -0.035094
  10 C :   -0.142666
  11 C :   -0.031369
  12 C :   -0.347205
  13 C :   -0.241021
  14 C :   -0.160758
  15 N :   -0.192555
  16 C :   -0.285510
  17 C :   -0.000624
  18 N :   -0.234026
  19 H :    0.123716
  20 H :    0.156190
  21 H :    0.125920
  22 H :    0.257434
  23 H :    0.144919
  24 H :    0.130702
  25 H :    0.135937
  26 H :    0.120817
  27 H :    0.126366
  28 H :    0.131298
  29 H :    0.127016
  30 H :    0.123526
  31 H :    0.117494
  32 H :    0.124025
  33 H :    0.118913
  34 H :    0.107879
  35 H :    0.125646
  36 H :    0.117604
  37 H :    0.243917

  Mayer bond orders larger than 0.100000
B(  0-C ,  1-N ) :   0.9540 B(  0-C , 19-H ) :   0.9443 B(  0-C , 20-H ) :   0.9278
B(  0-C , 21-H ) :   0.9454 B(  1-N ,  2-C ) :   1.1190 B(  1-N , 22-H ) :   0.8286
B(  2-C ,  3-O ) :   1.8673 B(  2-C ,  4-O ) :   0.9798 B(  4-O ,  5-C ) :   0.8043
B(  5-C ,  6-C ) :   1.4300 B(  5-C , 10-C ) :   1.3801 B(  6-C ,  7-C ) :   1.4050
B(  6-C , 23-H ) :   0.9158 B(  7-C ,  8-C ) :   1.3969 B(  7-C , 24-H ) :   0.9242
B(  8-C ,  9-C ) :   1.3729 B(  8-C , 18-N ) :   0.9692 B(  9-C , 10-C ) :   1.4333
B(  9-C , 11-C ) :   0.9687 B( 10-C , 25-H ) :   0.9194 B( 11-C , 12-C ) :   0.9967
B( 11-C , 13-C ) :   0.9782 B( 11-C , 17-C ) :   0.9205 B( 12-C , 26-H ) :   0.9418
B( 12-C , 27-H ) :   0.9454 B( 12-C , 28-H ) :   0.9442 B( 13-C , 14-C ) :   0.9723
B( 13-C , 29-H ) :   0.9365 B( 13-C , 30-H ) :   0.9366 B( 14-C , 15-N ) :   0.9880
B( 14-C , 31-H ) :   0.9382 B( 14-C , 32-H ) :   0.9415 B( 15-N , 16-C ) :   0.9816
B( 15-N , 17-C ) :   0.9706 B( 16-C , 33-H ) :   0.9478 B( 16-C , 34-H ) :   0.9208
B( 16-C , 35-H ) :   0.9482 B( 17-C , 18-N ) :   0.9915 B( 17-C , 36-H ) :   0.9247
B( 18-N , 37-H ) :   0.8386

FINAL SINGLE POINT ENERGY      -859.105716978247

DIPOLE MOMENT
-------------
                                X             Y             Z
Electronic contribution:      9.11056       4.85251       4.27506
Nuclear contribution   :     -8.96066      -5.59482      -4.02793
                        -----------------------------------------
Total Dipole Moment    :      0.14990      -0.74231       0.24714
                        -----------------------------------------
Magnitude (a.u.)       :      0.79660
Magnitude (Debye)      :      2.02479

Rotational constants in cm-1:     0.028630     0.006129     0.005970
Rotational constants in MHz :   858.295227   183.738332   178.980958

                             ****ORCA TERMINATED NORMALLY****
TOTAL RUN TIME: 0 days 0 hours 24 minutes 4 seconds 550 msec
