                         Program Version 5.0.1 -  RELEASE  -
|  1> ! B3LYP 6-31G(d) Opt TightSCF
|  2> %pal
|  3>    nprocs 16
|  4> end
|  5>
|  6> * xyz 0 1
|  7> C    2.554080  -2.969729  -0.030569
|  8> C    1.852607  -1.647066  -0.168988
|  9> C    1.835480  -1.036150  -1.372647
| 10> C    1.082214   0.253643  -1.618912
| 11> C   -0.328739  -0.081765  -2.140617
| 12> C   -1.280142  -0.528649  -1.051655
| 13> N   -2.473167  -1.083511  -1.417366
| 14> C   -3.386327  -1.499831  -0.498173
| 15> O   -4.474086  -2.011138  -0.876265
| 16> C   -3.119331  -1.365909   0.862953
| 17> C   -1.917327  -0.794493   1.271326
| 18> C   -0.986337  -0.335092   0.323056
| 19> C    0.363123   0.231170   0.784302
| 20> C    1.309554  -0.969101   1.077773
| 21> N    0.202210   1.024405   2.029771
| 22> C   -0.531486   2.284059   1.826509
| 23> C    0.176624   3.180341   0.807764
| 24> C    0.303635   2.448489  -0.524174
| 25> C    1.021733   1.095621  -0.327290
| 26> H    2.042741  -3.731480  -0.656134
| 27> H    2.545643  -3.316254   1.024466
| 28> H    3.610530  -2.874592  -0.359962
| 29> H    2.277947  -1.534504  -2.231528
| 30> H    1.626692   0.825657  -2.402021
| 31> H   -0.260341  -0.875976  -2.916748
| 32> H   -0.760220   0.807071  -2.647237
| 33> H   -2.694853  -1.197762  -2.433108
| 34> H   -3.834933  -1.706746   1.601151
| 35> H   -1.711902  -0.713825   2.331185
| 36> H    0.784812  -1.718859   1.709970
| 37> H    2.189347  -0.619631   1.660559
| 38> H    1.144221   1.268145   2.418859
| 39> H   -1.572339   2.076508   1.495905
| 40> H   -0.599013   2.823830   2.795563
| 41> H   -0.409775   4.113360   0.663934
| 42> H    1.185010   3.458726   1.185235
| 43> H    0.880659   3.077898  -1.235715
| 44> H   -0.717122   2.311610  -0.937933
| 45> H    2.068578   1.331527  -0.023242
| 46> *
| 47>
| 48>                          ****END OF INPUT****
 Total Charge           Charge          ....    0
 Multiplicity           Mult            ....    1
 Number of Electrons    NEL             ....  138
FINAL SINGLE POINT ENERGY      -805.934155481100
FINAL SINGLE POINT ENERGY      -805.949828877508
FINAL SINGLE POINT ENERGY      -805.954080728787
FINAL SINGLE POINT ENERGY      -805.954528279371
FINAL SINGLE POINT ENERGY      -805.954638316108
FINAL SINGLE POINT ENERGY      -805.954727577818
FINAL SINGLE POINT ENERGY      -805.954947177736
FINAL SINGLE POINT ENERGY      -805.955131810734
FINAL SINGLE POINT ENERGY      -805.955202332757
FINAL SINGLE POINT ENERGY      -805.955237188489
FINAL SINGLE POINT ENERGY      -805.955714468684
FINAL SINGLE POINT ENERGY      -805.956375717892
FINAL SINGLE POINT ENERGY      -805.956944694292
FINAL SINGLE POINT ENERGY      -805.957424793376
FINAL SINGLE POINT ENERGY      -805.957802791451
FINAL SINGLE POINT ENERGY      -805.958006736748
FINAL SINGLE POINT ENERGY      -805.958040337625
FINAL SINGLE POINT ENERGY      -805.958049409989
FINAL SINGLE POINT ENERGY      -805.958050420336
                    ***********************HURRAY********************

CARTESIAN COORDINATES (ANGSTROEM)
---------------------------------
  C      2.631141   -2.918637    0.058926
  C      1.911412   -1.613351   -0.164923
  C      1.798252   -1.054155   -1.377624
  C      1.072584    0.248001   -1.642576
  C     -0.351276   -0.037273   -2.176025
  C     -1.269072   -0.482719   -1.064887
  N     -2.465628   -1.036391   -1.441597
  C     -3.481257   -1.518864   -0.588522
  O     -4.506430   -1.999652   -1.066270
  C     -3.144007   -1.371075    0.814212
  C     -1.958169   -0.819613    1.206495
  C     -0.980076   -0.348443    0.271673
  C      0.361096    0.214952    0.758497
  C      1.331250   -0.953851    1.068326
  N      0.147494    0.950895    2.022278
  C     -0.501834    2.259096    1.863888
  C      0.192389    3.171299    0.840218
  C      0.304689    2.449914   -0.510759
  C      1.006720    1.089323   -0.351863
  H      1.951125   -3.679673    0.466619
  H      3.444527   -2.803526    0.789592
  H      3.062052   -3.308711   -0.869014
  H      2.217647   -1.567128   -2.243854
  H      1.614675    0.810015   -2.416365
  H     -0.308584   -0.814014   -2.952156
  H     -0.771207    0.857213   -2.659849
  H     -2.677521   -1.142835   -2.427940
  H     -3.880257   -1.721758    1.529450
  H     -1.728356   -0.709649    2.262746
  H      0.816395   -1.698487    1.690495
  H      2.163498   -0.575423    1.687031
  H      1.054994    1.090312    2.464989
  H     -1.541600    2.086688    1.556129
  H     -0.539217    2.733569    2.851716
  H     -0.362554    4.112532    0.729669
  H      1.195618    3.434437    1.208571
  H      0.854341    3.064178   -1.237251
  H     -0.707069    2.314374   -0.914575
  H      2.042214    1.288427   -0.035474

 Multiplicity           Mult            ....    1
 Number of Electrons    NEL             ....  138
 Basis Dimension        Dim             ....  306

ORBITAL ENERGIES
----------------

  NO   OCC          E(Eh)            E(eV)
   0   2.0000     -19.082013      -519.2480
   1   2.0000     -14.368518      -390.9873
   2   2.0000     -14.312451      -389.4616
   3   2.0000     -10.264564      -279.3130
   4   2.0000     -10.235576      -278.5242
   5   2.0000     -10.221298      -278.1356
   6   2.0000     -10.197344      -277.4838
   7   2.0000     -10.197318      -277.4831
   8   2.0000     -10.194063      -277.3945
   9   2.0000     -10.188585      -277.2455
  10   2.0000     -10.186915      -277.2000
  11   2.0000     -10.182694      -277.0852
  12   2.0000     -10.181661      -277.0571
  13   2.0000     -10.179365      -276.9946
  14   2.0000     -10.176725      -276.9228
  15   2.0000     -10.174571      -276.8642
  16   2.0000     -10.173779      -276.8426
  17   2.0000     -10.172868      -276.8178
  18   2.0000     -10.170568      -276.7552
  19   2.0000      -1.010864       -27.5070
  20   2.0000      -0.940784       -25.6000
  21   2.0000      -0.916507       -24.9394
  22   2.0000      -0.847065       -23.0498
  23   2.0000      -0.803733       -21.8707
  24   2.0000      -0.798712       -21.7341
  25   2.0000      -0.774712       -21.0810
  26   2.0000      -0.752836       -20.4857
  27   2.0000      -0.738520       -20.0962
  28   2.0000      -0.688437       -18.7333
  29   2.0000      -0.685005       -18.6399
  30   2.0000      -0.642234       -17.4761
  31   2.0000      -0.634156       -17.2563
  32   2.0000      -0.618764       -16.8374
  33   2.0000      -0.604478       -16.4487
  34   2.0000      -0.592102       -16.1119
  35   2.0000      -0.552951       -15.0466
  36   2.0000      -0.531197       -14.4546
  37   2.0000      -0.505028       -13.7425
  38   2.0000      -0.491006       -13.3609
  39   2.0000      -0.482956       -13.1419
  40   2.0000      -0.473614       -12.8877
  41   2.0000      -0.462481       -12.5848
  42   2.0000      -0.454112       -12.3570
  43   2.0000      -0.446251       -12.1431
  44   2.0000      -0.437248       -11.8981
  45   2.0000      -0.431306       -11.7364
  46   2.0000      -0.423412       -11.5216
  47   2.0000      -0.420735       -11.4488
  48   2.0000      -0.408407       -11.1133
  49   2.0000      -0.405544       -11.0354
  50   2.0000      -0.399173       -10.8621
  51   2.0000      -0.396216       -10.7816
  52   2.0000      -0.383330       -10.4309
  53   2.0000      -0.380452       -10.3526
  54   2.0000      -0.365872        -9.9559
  55   2.0000      -0.359045        -9.7701
  56   2.0000      -0.358103        -9.7445
  57   2.0000      -0.351796        -9.5729
  58   2.0000      -0.348717        -9.4891
  59   2.0000      -0.341770        -9.3000
  60   2.0000      -0.323102        -8.7920
  61   2.0000      -0.317002        -8.6261
  62   2.0000      -0.307798        -8.3756
  63   2.0000      -0.300802        -8.1852
  64   2.0000      -0.281902        -7.6709
  65   2.0000      -0.238826        -6.4988
  66   2.0000      -0.231808        -6.3078
  67   2.0000      -0.217994        -5.9319
  68   2.0000      -0.197091        -5.3631
  69   0.0000      -0.024215        -0.6589
  70   0.0000       0.020788         0.5657
  71   0.0000       0.028771         0.7829
  72   0.0000       0.072473         1.9721
  73   0.0000       0.092125         2.5069

MULLIKEN ATOMIC CHARGES
-----------------------
   0 C :   -0.515154
   1 C :    0.193801
   2 C :   -0.182291
   3 C :   -0.124596
   4 C :   -0.356612
   5 C :    0.324416
   6 N :   -0.659023
   7 C :    0.531133
   8 O :   -0.493134
   9 C :   -0.231547
  10 C :   -0.113417
  11 C :    0.041678
  12 C :    0.122457
  13 C :   -0.340259
  14 N :   -0.557520
  15 C :   -0.148651
  16 C :   -0.260776
  17 C :   -0.269947
  18 C :   -0.108143
  19 H :    0.158736
  20 H :    0.151753
  21 H :    0.153534
  22 H :    0.114684
  23 H :    0.124349
  24 H :    0.154257
  25 H :    0.163101
  26 H :    0.329362
  27 H :    0.142851
  28 H :    0.158448
  29 H :    0.155528
  30 H :    0.132007
  31 H :    0.287497
  32 H :    0.147778
  33 H :    0.138149
  34 H :    0.132481
  35 H :    0.121838
  36 H :    0.130598
  37 H :    0.135400
  38 H :    0.115237
Sum of atomic charges:   -0.0000000

LOEWDIN ATOMIC CHARGES
----------------------
   0 C :   -0.355385
   1 C :   -0.025138
   2 C :   -0.159400
   3 C :   -0.115214
   4 C :   -0.227485
   5 C :    0.042640
   6 N :   -0.132904
   7 C :    0.091905
   8 O :   -0.296670
   9 C :   -0.179002
  10 C :   -0.090336
  11 C :   -0.079198
  12 C :    0.020285
  13 C :   -0.215090
  14 N :   -0.296014
  15 C :   -0.172514
  16 C :   -0.245014
  17 C :   -0.232731
  18 C :   -0.118485
  19 H :    0.133858
  20 H :    0.130447
  21 H :    0.130972
  22 H :    0.122912
  23 H :    0.125006
  24 H :    0.134334
  25 H :    0.134710
  26 H :    0.260692
  27 H :    0.144179
  28 H :    0.147148
  29 H :    0.134913
  30 H :    0.122447
  31 H :    0.221863
  32 H :    0.123506
  33 H :    0.122599
  34 H :    0.123132
  35 H :    0.112842
  36 H :    0.120363
  37 H :    0.121086
  38 H :    0.118742

  Mayer bond orders larger than 0.100000
B(  0-C ,  1-C ) :   0.9965 B(  0-C , 19-H ) :   0.9343 B(  0-C , 20-H ) :   0.9370
B(  0-C , 21-H ) :   0.9474 B(  1-C ,  2-C ) :   1.9178 B(  1-C , 13-C ) :   0.9931
B(  2-C ,  3-C ) :   0.9933 B(  2-C , 22-H ) :   0.9184 B(  3-C ,  4-C ) :   0.9765
B(  3-C , 18-C ) :   0.9774 B(  3-C , 23-H ) :   0.9186 B(  4-C ,  5-C ) :   0.9898
B(  4-C , 24-H ) :   0.9229 B(  4-C , 25-H ) :   0.9111 B(  5-C ,  6-N ) :   1.0330
B(  5-C , 11-C ) :   1.5788 B(  6-N ,  7-C ) :   0.9638 B(  6-N , 26-H ) :   0.8218
B(  7-C ,  8-O ) :   1.8266 B(  7-C ,  9-C ) :   1.1402 B(  9-C , 10-C ) :   1.5894
B(  9-C , 27-H ) :   0.9279 B( 10-C , 11-C ) :   1.2314 B( 10-C , 28-H ) :   0.9072
B( 11-C , 12-C ) :   0.9514 B( 12-C , 13-C ) :   0.9743 B( 12-C , 14-N ) :   0.9608
B( 12-C , 18-C ) :   0.9653 B( 13-C , 29-H ) :   0.9202 B( 13-C , 30-H ) :   0.9121
B( 14-N , 15-C ) :   1.0068 B( 14-N , 31-H ) :   0.8400 B( 15-C , 16-C ) :   0.9896
B( 15-C , 32-H ) :   0.9314 B( 15-C , 33-H ) :   0.9435 B( 16-C , 17-C ) :   1.0088
B( 16-C , 34-H ) :   0.9353 B( 16-C , 35-H ) :   0.9400 B( 17-C , 18-C ) :   0.9998
B( 17-C , 36-H ) :   0.9376 B( 17-C , 37-H ) :   0.9268 B( 18-C , 38-H ) :   0.9185

FINAL SINGLE POINT ENERGY      -805.958050626345

DIPOLE MOMENT
-------------
                                X             Y             Z
Electronic contribution:    -13.28653      -6.14454      -2.88769
Nuclear contribution   :     15.36098       7.14525       2.79716
                        -----------------------------------------
Total Dipole Moment    :      2.07445       1.00071      -0.09053
                        -----------------------------------------
Magnitude (a.u.)       :      2.30498
Magnitude (Debye)      :      5.85881

Rotational constants in cm-1:     0.016694     0.011946     0.009685
Rotational constants in MHz :   500.475699   358.123333   290.346021

                             ****ORCA TERMINATED NORMALLY****
TOTAL RUN TIME: 0 days 0 hours 40 minutes 34 seconds 550 msec
