                         Program Version 5.0.1 -  RELEASE  -
|  1> ! B3LYP 6-31G(d) Opt TightSCF
|  2> %pal
|  3>    nprocs 16
|  4> end
|  5>
|  6> * xyz 0 1
|  7> O    2.667191   1.522983  -2.177705
|  8> C    3.092141   0.437234  -1.696188
|  9> C    2.302624  -0.815674  -1.980117
| 10> C    1.479397  -1.276756  -0.763130
| 11> C    0.410520  -0.254859  -0.301445
| 12> C   -0.282634  -0.732402   1.000581
| 13> C   -1.619237  -1.426134   0.702443
| 14> N   -2.591844  -0.521714   0.032412
| 15> C   -3.526671   0.084757   1.008681
| 16> C   -4.744707   0.730372   0.313858
| 17> C   -5.759369   1.275445   1.311436
| 18> C   -7.087200   1.291271   0.566475
| 19> C   -6.962907   0.281986  -0.574863
| 20> C   -5.536465  -0.255944  -0.538546
| 21> C   -1.954284   0.510206  -0.829233
| 22> C   -0.622405   0.032343  -1.419195
| 23> C    4.319135   0.445009  -0.850891
| 24> C    4.920790   1.686391  -0.499385
| 25> C    6.077138   1.732512   0.299375
| 26> C    6.616402   0.526946   0.734828
| 27> N    7.706103   0.348339   1.499244
| 28> C    7.832692  -0.989429   1.654363
| 29> C    6.816331  -1.662021   0.983546
| 30> C    6.051668  -0.672960   0.403843
| 31> C    4.907656  -0.758833  -0.385211
| 32> H    2.988714  -1.629094  -2.294836
| 33> H    1.628276  -0.645272  -2.846534
| 34> H    2.174972  -1.483621   0.078323
| 35> H    0.982960  -2.238956  -1.016395
| 36> H    0.928702   0.698799  -0.055981
| 37> H   -0.481793   0.144480   1.655262
| 38> H    0.370475  -1.420283   1.580599
| 39> H   -2.024107  -1.851732   1.647079
| 40> H   -1.431890  -2.297393   0.038403
| 41> H   -3.912012  -0.697675   1.700538
| 42> H   -3.002211   0.844698   1.630632
| 43> H   -4.411897   1.577063  -0.327226
| 44> H   -5.846725   0.602307   2.193600
| 45> H   -5.477407   2.293504   1.658278
| 46> H   -7.924132   1.023906   1.247920
| 47> H   -7.272482   2.307024   0.152454
| 48> H   -7.694069  -0.546572  -0.450613
| 49> H   -7.155159   0.784734  -1.548245
| 50> H   -5.538173  -1.265018  -0.068635
| 51> H   -5.109031  -0.334280  -1.561864
| 52> H   -2.636767   0.746478  -1.673223
| 53> H   -1.769517   1.453183  -0.265444
| 54> H   -0.815402  -0.882695  -2.022087
| 55> H   -0.225612   0.813263  -2.103672
| 56> H    4.494054   2.621647  -0.838895
| 57> H    6.531901   2.677589   0.566954
| 58> H    8.329849   1.086863   1.894262
| 59> H    8.622852  -1.458374   2.225688
| 60> H    6.661363  -2.731514   0.929957
| 61> H    4.502206  -1.732127  -0.621474
| 62> *
| 63>
| 64>                          ****END OF INPUT****
 Total Charge           Charge          ....    0
 Multiplicity           Mult            ....    1
 Number of Electrons    NEL             ....  184
FINAL SINGLE POINT ENERGY     -1040.413174523732
FINAL SINGLE POINT ENERGY     -1040.434703422884
FINAL SINGLE POINT ENERGY     -1040.438032773274
FINAL SINGLE POINT ENERGY     -1040.438818178811
FINAL SINGLE POINT ENERGY     -1040.439193677970
FINAL SINGLE POINT ENERGY     -1040.439217312143
FINAL SINGLE POINT ENERGY     -1040.439390505756
FINAL SINGLE POINT ENERGY     -1040.439419567108
FINAL SINGLE POINT ENERGY     -1040.439420867230
                    ***********************HURRAY********************

CARTESIAN COORDINATES (ANGSTROEM)
---------------------------------
  O      2.483869    1.392213   -2.061316
  C      3.001760    0.364632   -1.633919
  C      2.311373   -0.976298   -1.869192
  C      1.486633   -1.450045   -0.646582
  C      0.412829   -0.461684   -0.152810
  C     -0.358115   -1.038052    1.069509
  C     -1.721145   -1.601831    0.639522
  N     -2.620103   -0.586733    0.061982
  C     -3.576452   -0.027890    1.017721
  C     -4.741543    0.711545    0.352565
  C     -5.797580    1.230122    1.348525
  C     -7.017116    1.576182    0.464225
  C     -6.910349    0.642943   -0.782409
  C     -5.586451   -0.143937   -0.610275
  C     -1.897834    0.458785   -0.681611
  C     -0.586499   -0.069693   -1.268330
  C      4.272322    0.425786   -0.848897
  C      4.802806    1.713642   -0.567626
  C      5.968715    1.880185    0.157865
  C      6.621420    0.724445    0.612111
  N      7.777738    0.575723    1.342751
  C      8.024442   -0.773781    1.546403
  C      7.036028   -1.512391    0.953851
  C      6.120950   -0.582424    0.347231
  C      4.935831   -0.717307   -0.390877
  H      3.041845   -1.752003   -2.128560
  H      1.656773   -0.840591   -2.734751
  H      2.169426   -1.671126    0.184762
  H      1.005436   -2.402325   -0.914285
  H      0.922626    0.456183    0.169268
  H     -0.519614   -0.251206    1.817835
  H      0.232363   -1.819827    1.566545
  H     -2.229625   -2.068195    1.490313
  H     -1.562559   -2.404006   -0.097066
  H     -3.993620   -0.860476    1.599859
  H     -3.085987    0.657455    1.742810
  H     -4.351527    1.578372   -0.202014
  H     -6.055825    0.424578    2.051858
  H     -5.449035    2.080941    1.945656
  H     -7.963341    1.451077    1.002156
  H     -6.969163    2.627491    0.155486
  H     -7.770203   -0.030909   -0.866203
  H     -6.890252    1.237901   -1.702984
  H     -5.780291   -1.118538   -0.140082
  H     -5.078015   -0.346715   -1.557727
  H     -2.539964    0.839422   -1.486174
  H     -1.668548    1.327025   -0.029388
  H     -0.810646   -0.939419   -1.902889
  H     -0.138071    0.689626   -1.916744
  H      4.256330    2.571527   -0.944230
  H      6.362676    2.871570    0.367639
  H      8.358585    1.329677    1.675667
  H      8.895050   -1.091041    2.103621
  H      6.964297   -2.591450    0.949028
  H      4.547355   -1.709157   -0.599823

 Multiplicity           Mult            ....    1
 Number of Electrons    NEL             ....  184
 Basis Dimension        Dim             ....  410

ORBITAL ENERGIES
----------------

  NO   OCC          E(Eh)            E(eV)
   0   2.0000     -19.115138      -520.1493
   1   2.0000     -14.381116      -391.3301
   2   2.0000     -14.296306      -389.0223
   3   2.0000     -10.253922      -279.0234
   4   2.0000     -10.221361      -278.1374
   5   2.0000     -10.219745      -278.0934
   6   2.0000     -10.188434      -277.2414
   7   2.0000     -10.185860      -277.1713
   8   2.0000     -10.184169      -277.1253
   9   2.0000     -10.183969      -277.1199
  10   2.0000     -10.182166      -277.0708
  11   2.0000     -10.181214      -277.0449
  12   2.0000     -10.180445      -277.0240
  13   2.0000     -10.177294      -276.9383
  14   2.0000     -10.175058      -276.8774
  15   2.0000     -10.173297      -276.8295
  16   2.0000     -10.171344      -276.7763
  17   2.0000     -10.168881      -276.7093
  18   2.0000     -10.161269      -276.5022
  19   2.0000     -10.159984      -276.4672
  20   2.0000     -10.158225      -276.4194
  21   2.0000     -10.157675      -276.4044
  22   2.0000     -10.156369      -276.3689
  23   2.0000     -10.155899      -276.3561
  24   2.0000     -10.151604      -276.2392
  25   2.0000      -1.016303       -27.6550
  26   2.0000      -0.984275       -26.7835
  27   2.0000      -0.901905       -24.5421
  28   2.0000      -0.843372       -22.9493
  29   2.0000      -0.818531       -22.2734
  30   2.0000      -0.801353       -21.8059
  31   2.0000      -0.785423       -21.3725
  32   2.0000      -0.760313       -20.6892
  33   2.0000      -0.738296       -20.0901
  34   2.0000      -0.732154       -19.9229
  35   2.0000      -0.720494       -19.6056
  36   2.0000      -0.711307       -19.3556
  37   2.0000      -0.688966       -18.7477
  38   2.0000      -0.660845       -17.9825
  39   2.0000      -0.639582       -17.4039
  40   2.0000      -0.622763       -16.9463
  41   2.0000      -0.618162       -16.8210
  42   2.0000      -0.598361       -16.2822
  43   2.0000      -0.593659       -16.1543
  44   2.0000      -0.575527       -15.6609
  45   2.0000      -0.548822       -14.9342
  46   2.0000      -0.544959       -14.8291
  47   2.0000      -0.541472       -14.7342
  48   2.0000      -0.529005       -14.3950
  49   2.0000      -0.511410       -13.9162
  50   2.0000      -0.485344       -13.2069
  51   2.0000      -0.480089       -13.0639
  52   2.0000      -0.472702       -12.8629
  53   2.0000      -0.466261       -12.6876
  54   2.0000      -0.456565       -12.4238
  55   2.0000      -0.452315       -12.3081
  56   2.0000      -0.443143       -12.0585
  57   2.0000      -0.440885       -11.9971
  58   2.0000      -0.436065       -11.8659
  59   2.0000      -0.425393       -11.5755
  60   2.0000      -0.423321       -11.5192
  61   2.0000      -0.420866       -11.4523
  62   2.0000      -0.410954       -11.1826
  63   2.0000      -0.404025       -10.9941
  64   2.0000      -0.398021       -10.8307
  65   2.0000      -0.394911       -10.7461
  66   2.0000      -0.394470       -10.7341
  67   2.0000      -0.386830       -10.5262
  68   2.0000      -0.384113       -10.4522
  69   2.0000      -0.373328       -10.1588
  70   2.0000      -0.367118        -9.9898
  71   2.0000      -0.360415        -9.8074
  72   2.0000      -0.356227        -9.6934
  73   2.0000      -0.350595        -9.5402
  74   2.0000      -0.346770        -9.4361
  75   2.0000      -0.336996        -9.1701
  76   2.0000      -0.332236        -9.0406
  77   2.0000      -0.322677        -8.7805
  78   2.0000      -0.321539        -8.7495
  79   2.0000      -0.317346        -8.6354
  80   2.0000      -0.312109        -8.4929
  81   2.0000      -0.307100        -8.3566
  82   2.0000      -0.305425        -8.3110
  83   2.0000      -0.300263        -8.1706
  84   2.0000      -0.296840        -8.0774
  85   2.0000      -0.292370        -7.9558
  86   2.0000      -0.287677        -7.8281
  87   2.0000      -0.282015        -7.6740
  88   2.0000      -0.230216        -6.2645
  89   2.0000      -0.225794        -6.1442
  90   2.0000      -0.210497        -5.7279
  91   2.0000      -0.185104        -5.0369
  92   0.0000      -0.036935        -1.0050
  93   0.0000      -0.008471        -0.2305
  94   0.0000       0.057405         1.5621
  95   0.0000       0.072562         1.9745
  96   0.0000       0.073998         2.0136

MULLIKEN ATOMIC CHARGES
-----------------------
   0 O :   -0.436554
   1 C :    0.362271
   2 C :   -0.353608
   3 C :   -0.284250
   4 C :   -0.061137
   5 C :   -0.284664
   6 C :   -0.136710
   7 N :   -0.366669
   8 C :   -0.119517
   9 C :   -0.091294
  10 C :   -0.268275
  11 C :   -0.267279
  12 C :   -0.270869
  13 C :   -0.253876
  14 C :   -0.128565
  15 C :   -0.304658
  16 C :    0.067393
  17 C :   -0.183613
  18 C :   -0.160669
  19 C :    0.299787
  20 N :   -0.637269
  21 C :    0.036865
  22 C :   -0.213241
  23 C :    0.109868
  24 C :   -0.258454
  25 H :    0.142169
  26 H :    0.165300
  27 H :    0.136060
  28 H :    0.135487
  29 H :    0.133838
  30 H :    0.136968
  31 H :    0.125735
  32 H :    0.128549
  33 H :    0.131674
  34 H :    0.121645
  35 H :    0.100439
  36 H :    0.123675
  37 H :    0.123855
  38 H :    0.128820
  39 H :    0.130460
  40 H :    0.132190
  41 H :    0.130719
  42 H :    0.132013
  43 H :    0.123856
  44 H :    0.141062
  45 H :    0.137137
  46 H :    0.106734
  47 H :    0.133043
  48 H :    0.166754
  49 H :    0.156456
  50 H :    0.127578
  51 H :    0.331172
  52 H :    0.153938
  53 H :    0.133210
  54 H :    0.134453
Sum of atomic charges:    0.0000000

LOEWDIN ATOMIC CHARGES
----------------------
   0 O :   -0.226185
   1 C :    0.126299
   2 C :   -0.259843
   3 C :   -0.221057
   4 C :   -0.125794
   5 C :   -0.243578
   6 C :   -0.159654
   7 N :   -0.182758
   8 C :   -0.153139
   9 C :   -0.130077
  10 C :   -0.229847
  11 C :   -0.236465
  12 C :   -0.238636
  13 C :   -0.227978
  14 C :   -0.156549
  15 C :   -0.240601
  16 C :   -0.079967
  17 C :   -0.106393
  18 C :   -0.155735
  19 C :    0.026122
  20 N :   -0.132472
  21 C :   -0.095188
  22 C :   -0.187544
  23 C :   -0.039911
  24 C :   -0.113447
  25 H :    0.129041
  26 H :    0.141130
  27 H :    0.119183
  28 H :    0.120592
  29 H :    0.122613
  30 H :    0.120587
  31 H :    0.119671
  32 H :    0.119988
  33 H :    0.110395
  34 H :    0.113892
  35 H :    0.089971
  36 H :    0.116272
  37 H :    0.113807
  38 H :    0.118127
  39 H :    0.118763
  40 H :    0.118390
  41 H :    0.118872
  42 H :    0.118615
  43 H :    0.115562
  44 H :    0.124713
  45 H :    0.117012
  46 H :    0.094518
  47 H :    0.118570
  48 H :    0.138866
  49 H :    0.148523
  50 H :    0.132269
  51 H :    0.260282
  52 H :    0.138035
  53 H :    0.137213
  54 H :    0.134926

  Mayer bond orders larger than 0.100000
B(  0-O ,  1-C ) :   1.8517 B(  1-C ,  2-C ) :   0.9689 B(  1-C , 16-C ) :   1.0048
B(  2-C ,  3-C ) :   0.9876 B(  2-C , 25-H ) :   0.9185 B(  2-C , 26-H ) :   0.9238
B(  3-C ,  4-C ) :   1.0071 B(  3-C , 27-H ) :   0.9315 B(  3-C , 28-H ) :   0.9325
B(  4-C ,  5-C ) :   0.9816 B(  4-C , 15-C ) :   1.0015 B(  4-C , 29-H ) :   0.9264
B(  5-C ,  6-C ) :   0.9951 B(  5-C , 30-H ) :   0.9394 B(  5-C , 31-H ) :   0.9350
B(  6-C ,  7-N ) :   0.9944 B(  6-C , 32-H ) :   0.9375 B(  6-C , 33-H ) :   0.9361
B(  7-N ,  8-C ) :   0.9790 B(  7-N , 14-C ) :   0.9772 B(  8-C ,  9-C ) :   1.0046
B(  8-C , 34-H ) :   0.9299 B(  8-C , 35-H ) :   0.9137 B(  9-C , 10-C ) :   0.9940
B(  9-C , 13-C ) :   0.9990 B(  9-C , 36-H ) :   0.9254 B( 10-C , 11-C ) :   1.0090
B( 10-C , 37-H ) :   0.9416 B( 10-C , 38-H ) :   0.9432 B( 11-C , 12-C ) :   0.9969
B( 11-C , 39-H ) :   0.9505 B( 11-C , 40-H ) :   0.9504 B( 12-C , 13-C ) :   1.0032
B( 12-C , 41-H ) :   0.9515 B( 12-C , 42-H ) :   0.9514 B( 13-C , 43-H ) :   0.9442
B( 13-C , 44-H ) :   0.9417 B( 14-C , 15-C ) :   1.0123 B( 14-C , 45-H ) :   0.9317
B( 14-C , 46-H ) :   0.9127 B( 15-C , 47-H ) :   0.9315 B( 15-C , 48-H ) :   0.9218
B( 16-C , 17-C ) :   1.3203 B( 16-C , 24-C ) :   1.3999 B( 17-C , 18-C ) :   1.4839
B( 17-C , 49-H ) :   0.9082 B( 18-C , 19-C ) :   1.3284 B( 18-C , 50-H ) :   0.9248
B( 19-C , 20-N ) :   1.0236 B( 19-C , 23-C ) :   1.3013 B( 20-N , 21-C ) :   1.0895
B( 20-N , 51-H ) :   0.8392 B( 21-C , 22-C ) :   1.6133 B( 21-C , 52-H ) :   0.9299
B( 22-C , 23-C ) :   1.2579 B( 22-C , 53-H ) :   0.9315 B( 23-C , 24-C ) :   1.3371
B( 24-C , 54-H ) :   0.9117

FINAL SINGLE POINT ENERGY     -1040.439418285206

DIPOLE MOMENT
-------------
                                X             Y             Z
Electronic contribution:     48.75331       3.33774      -2.22618
Nuclear contribution   :    -46.93178      -3.69170       3.39351
                        -----------------------------------------
Total Dipole Moment    :      1.82152      -0.35396       1.16734
                        -----------------------------------------
Magnitude (a.u.)       :      2.19224
Magnitude (Debye)      :      5.57222

Rotational constants in cm-1:     0.021831     0.002089     0.002068
Rotational constants in MHz :   654.475365    62.613893    61.987504

                             ****ORCA TERMINATED NORMALLY****
TOTAL RUN TIME: 0 days 0 hours 10 minutes 36 seconds 846 msec
