                         Program Version 5.0.1 -  RELEASE  -
|  1> ! B3LYP 6-31G(d) Opt TightSCF
|  2> %pal
|  3>    nprocs 16
|  4> end
|  5>
|  6> * xyz 0 1
|  7> O   -3.037358   2.127536  -2.145631
|  8> C   -3.636529   1.510872  -1.222868
|  9> C   -5.107931   1.745462  -1.035123
| 10> C   -5.807199   0.607940  -0.334067
| 11> C   -7.208810   0.534212  -0.396424
| 12> C   -7.897692  -0.464374   0.295061
| 13> C   -7.196445  -1.390921   1.066862
| 14> C   -5.804028  -1.322231   1.149766
| 15> C   -5.097996  -0.323278   0.454152
| 16> C   -3.623432  -0.257002   0.521859
| 17> O   -2.995910  -1.018247   1.309156
| 18> N   -2.902584   0.655907  -0.326130
| 19> C   -1.433645   0.618654  -0.375503
| 20> C   -0.967378  -0.450778  -1.379917
| 21> C    0.567360  -0.580392  -1.537587
| 22> C    1.239003  -1.200256  -0.290533
| 23> C    2.754213  -0.959737  -0.323518
| 24> N    3.113160   0.486017  -0.334160
| 25> C    3.596907   0.948352   0.982860
| 26> C    4.999045   0.456623   1.231182
| 27> C    5.268481  -0.445958   2.274035
| 28> C    6.572653  -0.901864   2.490692
| 29> C    7.614697  -0.460699   1.670407
| 30> C    7.354456   0.437318   0.631637
| 31> C    6.051855   0.895526   0.411325
| 32> C    2.037832   1.378181  -0.831602
| 33> C    1.255176   0.735649  -1.983422
| 34> H   -5.574730   1.906163  -2.031706
| 35> H   -5.243580   2.670571  -0.435969
| 36> H   -7.769232   1.256052  -0.977990
| 37> H   -8.977329  -0.515638   0.237608
| 38> H   -7.732679  -2.162920   1.603573
| 39> H   -5.280558  -2.052927   1.753577
| 40> H   -1.034460   0.411479   0.637781
| 41> H   -1.045748   1.618136  -0.662492
| 42> H   -1.402836  -0.213643  -2.375329
| 43> H   -1.379818  -1.437402  -1.074838
| 44> H    0.721007  -1.308156  -2.366932
| 45> H    0.843057  -0.766121   0.649468
| 46> H    1.037546  -2.293406  -0.264277
| 47> H    3.169896  -1.428816  -1.241294
| 48> H    3.217811  -1.498751   0.531951
| 49> H    2.901773   0.621663   1.789750
| 50> H    3.629471   2.061030   1.018779
| 51> H    4.471039  -0.799053   2.915974
| 52> H    6.775358  -1.597995   3.294303
| 53> H    8.623376  -0.814859   1.839450
| 54> H    8.162036   0.778023  -0.003337
| 55> H    5.861728   1.590131  -0.397720
| 56> H    1.329865   1.641776  -0.013447
| 57> H    2.494538   2.322351  -1.199678
| 58> H    1.973277   0.513981  -2.803994
| 59> H    0.521293   1.461009  -2.395721
| 60> *
| 61>
| 62>                          ****END OF INPUT****
 Total Charge           Charge          ....    0
 Multiplicity           Mult            ....    1
 Number of Electrons    NEL             ....  194
FINAL SINGLE POINT ENERGY     -1151.334697992025
FINAL SINGLE POINT ENERGY     -1151.349662136257
FINAL SINGLE POINT ENERGY     -1151.352367192245
FINAL SINGLE POINT ENERGY     -1151.353004355056
FINAL SINGLE POINT ENERGY     -1151.353182300479
FINAL SINGLE POINT ENERGY     -1151.353403787994
FINAL SINGLE POINT ENERGY     -1151.353525102631
FINAL SINGLE POINT ENERGY     -1151.353639322346
FINAL SINGLE POINT ENERGY     -1151.353704977535
FINAL SINGLE POINT ENERGY     -1151.353759639348
FINAL SINGLE POINT ENERGY     -1151.357016326605
FINAL SINGLE POINT ENERGY     -1151.356992219909
FINAL SINGLE POINT ENERGY     -1151.356989279095
FINAL SINGLE POINT ENERGY     -1151.357013558190
FINAL SINGLE POINT ENERGY     -1151.357017402377
FINAL SINGLE POINT ENERGY     -1151.357035174394
FINAL SINGLE POINT ENERGY     -1151.357028376040
FINAL SINGLE POINT ENERGY     -1151.357036706771
FINAL SINGLE POINT ENERGY     -1151.357040321763
                    ***********************HURRAY********************

CARTESIAN COORDINATES (ANGSTROEM)
---------------------------------
  O     -3.317273    2.626603   -1.361673
  C     -3.893035    1.619945   -0.983261
  C     -5.336896    1.359462   -1.382991
  C     -5.916247    0.018242   -1.022797
  C     -7.189439   -0.361106   -1.464684
  C     -7.721829   -1.599342   -1.109836
  C     -6.986865   -2.478881   -0.305316
  C     -5.721106   -2.112630    0.136493
  C     -5.184685   -0.866057   -0.221130
  C     -3.818815   -0.530328    0.262348
  O     -3.175729   -1.287111    0.976810
  N     -3.265833    0.697899   -0.143451
  C     -1.881849    0.989531    0.285598
  C     -0.851632    0.392605   -0.685426
  C      0.624512    0.604772   -0.295367
  C      0.980240    0.091915    1.110063
  C      2.511016    0.091233    1.319248
  N      3.173929    1.087386    0.464278
  C      4.567000    1.295137    0.842420
  C      5.441869    0.078426    0.587462
  C      6.359059   -0.361499    1.548275
  C      7.195872   -1.451698    1.293681
  C      7.118902   -2.121403    0.071793
  C      6.200723   -1.694034   -0.892408
  C      5.371411   -0.602288   -0.636646
  C      2.393194    2.321373    0.381313
  C      1.095296    2.073759   -0.423350
  H     -5.396870    1.541527   -2.462785
  H     -5.925278    2.166313   -0.922274
  H     -7.764135    0.318721   -2.089851
  H     -8.711048   -1.881059   -1.461294
  H     -7.402558   -3.444060   -0.029782
  H     -5.122852   -2.771068    0.757435
  H     -1.770281    0.563416    1.282716
  H     -1.796307    2.075037    0.338908
  H     -1.025448    0.821372   -1.681251
  H     -1.042537   -0.685554   -0.758521
  H      1.215405    0.015100   -1.008674
  H      0.505030    0.734133    1.863731
  H      0.584771   -0.918120    1.273672
  H      2.929372   -0.891751    1.075153
  H      2.736085    0.276115    2.388989
  H      4.668793    1.595697    1.905705
  H      4.945507    2.136534    0.245095
  H      6.417182    0.152695    2.505731
  H      7.901826   -1.780010    2.052724
  H      7.765466   -2.972312   -0.127761
  H      6.132489   -2.213212   -1.845525
  H      4.647405   -0.272874   -1.377030
  H      2.153544    2.720247    1.387897
  H      3.002677    3.085658   -0.113777
  H      1.259740    2.305882   -1.482602
  H      0.320234    2.764850   -0.068075

 Multiplicity           Mult            ....    1
 Number of Electrons    NEL             ....  194
 Basis Dimension        Dim             ....  430

ORBITAL ENERGIES
----------------

  NO   OCC          E(Eh)            E(eV)
   0   2.0000     -19.128208      -520.5050
   1   2.0000     -19.126377      -520.4552
   2   2.0000     -14.379879      -391.2964
   3   2.0000     -14.309213      -389.3735
   4   2.0000     -10.301057      -280.3060
   5   2.0000     -10.299982      -280.2768
   6   2.0000     -10.214450      -277.9493
   7   2.0000     -10.206967      -277.7457
   8   2.0000     -10.204820      -277.6873
   9   2.0000     -10.203971      -277.6642
  10   2.0000     -10.201513      -277.5973
  11   2.0000     -10.197702      -277.4936
  12   2.0000     -10.196549      -277.4622
  13   2.0000     -10.195846      -277.4431
  14   2.0000     -10.195062      -277.4217
  15   2.0000     -10.191342      -277.3205
  16   2.0000     -10.187421      -277.2138
  17   2.0000     -10.178198      -276.9628
  18   2.0000     -10.173267      -276.8287
  19   2.0000     -10.172834      -276.8169
  20   2.0000     -10.172722      -276.8139
  21   2.0000     -10.172201      -276.7997
  22   2.0000     -10.171529      -276.7814
  23   2.0000     -10.168090      -276.6878
  24   2.0000     -10.168048      -276.6867
  25   2.0000     -10.164658      -276.5944
  26   2.0000     -10.163146      -276.5533
  27   2.0000      -1.058833       -28.8123
  28   2.0000      -1.039858       -28.2960
  29   2.0000      -0.936232       -25.4762
  30   2.0000      -0.915870       -24.9221
  31   2.0000      -0.874872       -23.8065
  32   2.0000      -0.840494       -22.8710
  33   2.0000      -0.808862       -22.0103
  34   2.0000      -0.796845       -21.6833
  35   2.0000      -0.770223       -20.9588
  36   2.0000      -0.754889       -20.5416
  37   2.0000      -0.737447       -20.0670
  38   2.0000      -0.732229       -19.9250
  39   2.0000      -0.730343       -19.8736
  40   2.0000      -0.722374       -19.6568
  41   2.0000      -0.679657       -18.4944
  42   2.0000      -0.652341       -17.7511
  43   2.0000      -0.639990       -17.4150
  44   2.0000      -0.619875       -16.8677
  45   2.0000      -0.617109       -16.7924
  46   2.0000      -0.607558       -16.5325
  47   2.0000      -0.594064       -16.1653
  48   2.0000      -0.585312       -15.9272
  49   2.0000      -0.566403       -15.4126
  50   2.0000      -0.546890       -14.8816
  51   2.0000      -0.524995       -14.2858
  52   2.0000      -0.511891       -13.9293
  53   2.0000      -0.500724       -13.6254
  54   2.0000      -0.494377       -13.4527
  55   2.0000      -0.485356       -13.2072
  56   2.0000      -0.482888       -13.1400
  57   2.0000      -0.469391       -12.7728
  58   2.0000      -0.465546       -12.6681
  59   2.0000      -0.454574       -12.3696
  60   2.0000      -0.451180       -12.2772
  61   2.0000      -0.445534       -12.1236
  62   2.0000      -0.443452       -12.0670
  63   2.0000      -0.437693       -11.9102
  64   2.0000      -0.430889       -11.7251
  65   2.0000      -0.427760       -11.6399
  66   2.0000      -0.425994       -11.5919
  67   2.0000      -0.417698       -11.3661
  68   2.0000      -0.410286       -11.1645
  69   2.0000      -0.408073       -11.1042
  70   2.0000      -0.405239       -11.0271
  71   2.0000      -0.403150       -10.9703
  72   2.0000      -0.395366       -10.7585
  73   2.0000      -0.384105       -10.4520
  74   2.0000      -0.379094       -10.3157
  75   2.0000      -0.374624       -10.1940
  76   2.0000      -0.369849       -10.0641
  77   2.0000      -0.364653        -9.9227
  78   2.0000      -0.359976        -9.7954
  79   2.0000      -0.354186        -9.6379
  80   2.0000      -0.352551        -9.5934
  81   2.0000      -0.351211        -9.5569
  82   2.0000      -0.341028        -9.2798
  83   2.0000      -0.331059        -9.0086
  84   2.0000      -0.328907        -8.9500
  85   2.0000      -0.322789        -8.7835
  86   2.0000      -0.309850        -8.4314
  87   2.0000      -0.303882        -8.2690
  88   2.0000      -0.296169        -8.0592
  89   2.0000      -0.275835        -7.5058
  90   2.0000      -0.266752        -7.2587
  91   2.0000      -0.262190        -7.1345
  92   2.0000      -0.258174        -7.0253
  93   2.0000      -0.254747        -6.9320
  94   2.0000      -0.238184        -6.4813
  95   2.0000      -0.231968        -6.3122
  96   2.0000      -0.200937        -5.4678
  97   0.0000      -0.052805        -1.4369
  98   0.0000      -0.017073        -0.4646
  99   0.0000       0.000150         0.0041
 100   0.0000       0.007706         0.2097
 101   0.0000       0.011478         0.3123

MULLIKEN ATOMIC CHARGES
-----------------------
   0 O :   -0.448048
   1 C :    0.554377
   2 C :   -0.475427
   3 C :    0.151748
   4 C :   -0.190081
   5 C :   -0.114073
   6 C :   -0.135134
   7 C :   -0.161417
   8 C :    0.017506
   9 C :    0.499028
  10 O :   -0.445976
  11 N :   -0.479431
  12 C :   -0.157675
  13 C :   -0.274349
  14 C :   -0.065266
  15 C :   -0.309151
  16 C :   -0.118814
  17 N :   -0.376130
  18 C :   -0.193156
  19 C :    0.143355
  20 C :   -0.182288
  21 C :   -0.126581
  22 C :   -0.127268
  23 C :   -0.129109
  24 C :   -0.161236
  25 C :   -0.128905
  26 C :   -0.271946
  27 H :    0.199288
  28 H :    0.202961
  29 H :    0.132968
  30 H :    0.139225
  31 H :    0.139633
  32 H :    0.167172
  33 H :    0.178079
  34 H :    0.174911
  35 H :    0.144972
  36 H :    0.147166
  37 H :    0.137576
  38 H :    0.134926
  39 H :    0.148063
  40 H :    0.151128
  41 H :    0.107086
  42 H :    0.112101
  43 H :    0.146771
  44 H :    0.119389
  45 H :    0.123969
  46 H :    0.123593
  47 H :    0.124359
  48 H :    0.134517
  49 H :    0.109510
  50 H :    0.134676
  51 H :    0.137107
  52 H :    0.134304
Sum of atomic charges:    0.0000000

LOEWDIN ATOMIC CHARGES
----------------------
   0 O :   -0.240380
   1 C :    0.126203
   2 C :   -0.250079
   3 C :   -0.007706
   4 C :   -0.132358
   5 C :   -0.107520
   6 C :   -0.129329
   7 C :   -0.091984
   8 C :   -0.063635
   9 C :    0.129292
  10 O :   -0.238156
  11 N :   -0.049149
  12 C :   -0.156214
  13 C :   -0.232478
  14 C :   -0.119200
  15 C :   -0.237778
  16 C :   -0.157272
  17 N :   -0.176288
  18 C :   -0.150308
  19 C :   -0.026597
  20 C :   -0.135804
  21 C :   -0.130333
  22 C :   -0.134049
  23 C :   -0.129594
  24 C :   -0.126407
  25 C :   -0.157895
  26 C :   -0.233198
  27 H :    0.164556
  28 H :    0.167841
  29 H :    0.134170
  30 H :    0.136750
  31 H :    0.136969
  32 H :    0.153100
  33 H :    0.142871
  34 H :    0.140836
  35 H :    0.126889
  36 H :    0.127777
  37 H :    0.126453
  38 H :    0.117170
  39 H :    0.129605
  40 H :    0.124709
  41 H :    0.095801
  42 H :    0.097634
  43 H :    0.128624
  44 H :    0.126929
  45 H :    0.129064
  46 H :    0.128796
  47 H :    0.128987
  48 H :    0.135386
  49 H :    0.092986
  50 H :    0.121016
  51 H :    0.123117
  52 H :    0.120181

  Mayer bond orders larger than 0.100000
B(  0-O ,  1-C ) :   1.8507 B(  1-C ,  2-C ) :   0.9675 B(  1-C , 11-N ) :   1.0454
B(  2-C ,  3-C ) :   0.9392 B(  2-C , 27-H ) :   0.9112 B(  2-C , 28-H ) :   0.9029
B(  3-C ,  4-C ) :   1.4022 B(  3-C ,  8-C ) :   1.4132 B(  4-C ,  5-C ) :   1.4513
B(  4-C , 29-H ) :   0.9264 B(  5-C ,  6-C ) :   1.4165 B(  5-C , 30-H ) :   0.9289
B(  6-C ,  7-C ) :   1.4427 B(  6-C , 31-H ) :   0.9295 B(  7-C ,  8-C ) :   1.3829
B(  7-C , 32-H ) :   0.9067 B(  8-C ,  9-C ) :   0.9994 B(  9-C , 10-O ) :   1.8416
B(  9-C , 11-N ) :   0.9764 B( 11-N , 12-C ) :   0.9023 B( 12-C , 13-C ) :   0.9992
B( 12-C , 33-H ) :   0.9123 B( 12-C , 34-H ) :   0.9132 B( 13-C , 14-C ) :   0.9998
B( 13-C , 35-H ) :   0.9327 B( 13-C , 36-H ) :   0.9310 B( 14-C , 15-C ) :   1.0036
B( 14-C , 26-C ) :   1.0013 B( 14-C , 37-H ) :   0.9266 B( 15-C , 16-C ) :   0.9956
B( 15-C , 38-H ) :   0.9372 B( 15-C , 39-H ) :   0.9387 B( 16-C , 17-N ) :   0.9736
B( 16-C , 40-H ) :   0.9320 B( 16-C , 41-H ) :   0.9209 B( 17-N , 18-C ) :   0.9793
B( 17-N , 25-C ) :   0.9750 B( 18-C , 19-C ) :   0.9784 B( 18-C , 42-H ) :   0.9078
B( 18-C , 43-H ) :   0.9232 B( 19-C , 20-C ) :   1.4448 B( 19-C , 24-C ) :   1.4279
B( 20-C , 21-C ) :   1.4309 B( 20-C , 44-H ) :   0.9223 B( 21-C , 22-C ) :   1.4615
B( 21-C , 45-H ) :   0.9305 B( 22-C , 23-C ) :   1.4409 B( 22-C , 46-H ) :   0.9313
B( 23-C , 24-C ) :   1.4414 B( 23-C , 47-H ) :   0.9311 B( 24-C , 48-H ) :   0.9167
B( 25-C , 26-C ) :   0.9897 B( 25-C , 49-H ) :   0.9223 B( 25-C , 50-H ) :   0.9403
B( 26-C , 51-H ) :   0.9429 B( 26-C , 52-H ) :   0.9338

FINAL SINGLE POINT ENERGY     -1151.357046449209

DIPOLE MOMENT
-------------
                                X             Y             Z
Electronic contribution:    -21.72920      -4.45296      -3.04140
Nuclear contribution   :     20.52304       4.26187       2.82570
                        -----------------------------------------
Total Dipole Moment    :     -1.20616      -0.19109      -0.21570
                        -----------------------------------------
Magnitude (a.u.)       :      1.24011
Magnitude (Debye)      :      3.15210

Rotational constants in cm-1:     0.017178     0.001963     0.001846
Rotational constants in MHz :   514.997080    58.860771    55.331672

                             ****ORCA TERMINATED NORMALLY****
TOTAL RUN TIME: 0 days 0 hours 44 minutes 38 seconds 698 msec
